80
 Atoms. Timestep: 0
Li 2.06725 3.79839 3.08418
Li 6.28513 3.80298 9.05803
Li 8.56692 3.84597 2.94225
Li 11.7195 9.16497 2.98066
Li 5.31269 9.30776 3.0748
Li 11.6677 1.92171 3.00794
Li 9.52544 5.53971 8.99731
Li 9.54548 1.82127 8.94535
Li 8.40149 0.0717508 3.12986
Li -2.02937 7.32851 5.94406
Li 2.27398 7.41905 11.783
Li 8.56332 7.29507 2.98706
Li 4.13599 3.59495 6.19585
Li 0.237364 3.79794 8.99033
Li 6.19638 0.0628433 9.01937
Li 6.12536 7.29092 9.00493
Li 2.18595 11.0143 3.06961
Li 2.09937 7.30534 3.11438
Li 9.54212 9.28192 8.95725
Li 5.37262 1.77019 3.10355
Li 0.1307 7.30959 8.9224
Li 5.39456 5.56371 3.03413
Li 0.290501 10.9856 8.88111
Li 3.25571 1.87987 0.0749523
Cl 1.11362 1.80882 1.56805
Cl 4.2908 7.30943 1.60952
Cl 7.55037 1.78113 10.3806
Cl -2.02903 7.28181 10.3521
Cl 7.54252 9.26599 10.3699
Cl -1.99324 3.74156 10.426
Cl 1.04293 9.30802 1.61646
Cl 4.18276 3.75138 1.55627
Cl -2.17624 0.100544 10.5166
Cl 0.986522 5.59299 10.5434
Cl 10.756 0.0699977 1.58364
Cl 1.24647 5.59535 1.56234
Cl 7.36991 1.79334 1.68637
Cl 10.4904 7.29965 1.61313
Cl 0.957608 1.81386 10.4664
Cl 4.3092 7.31741 10.5542
Cl 1.0891 9.25565 10.527
Cl 4.43103 3.80228 10.5032
Cl 7.33266 9.23093 1.63396
Cl 10.5399 3.78488 1.66938
Cl 4.24789 0.0867976 10.5791
Cl 7.41339 5.63434 10.3673
Cl 4.36558 0.129681 1.50492
Cl 7.43549 5.5876 1.56892
Cl -1.08262 1.77909 7.59847
Cl 1.97663 7.2954 7.45162
Cl 9.6201 1.78768 4.45863
Cl 0.0408297 7.33388 4.52967
Cl 9.68634 9.21767 4.51575
Cl 0.177693 3.82152 4.51573
Cl -1.13348 9.21978 7.5154
Cl 2.08783 3.76097 7.46523
Cl -0.105663 0.0841953 4.47317
Cl 3.2278 5.51214 4.50075
Cl 8.65454 11.0156 7.46413
Cl -1.04312 5.54286 7.50525
Cl 5.31894 1.85325 7.42595
Cl 8.56259 7.30955 7.48363
Cl 3.33502 1.86889 4.47372
Cl 6.49185 7.27422 4.47004
Cl 3.2753 9.28002 4.38718
Cl 6.42517 3.78771 4.46548
Cl 5.43947 9.28973 7.53934
Cl 8.43097 3.82551 7.57521
Cl 6.26859 10.9884 4.53694
Cl 9.4972 5.56906 4.58941
Cl 2.13853 0.0647533 7.31533
Cl 5.38402 5.50529 7.41553
In 8.43697 10.9823 11.9319
In 3.18113 5.60166 0.074982
In 2.2408 0.120265 11.8455
In 5.38929 5.51226 11.9339
In -2.06676 0.132663 6.00838
In 1.10699 5.54121 6.03075
In 4.2273 10.9201 6.14183
In 7.45149 5.5437 6.02132
80
 Atoms. Timestep: 1
Li 2.04479 3.7837 3.07507
Li 6.2693 3.81315 9.05266
Li 8.58321 3.84025 2.9002
Li 11.6824 9.15448 2.97486
Li 5.31953 9.29411 3.08925
Li 11.6438 1.93664 2.99089
Li 9.53563 5.51999 8.97142
Li 9.56725 1.82584 8.94692
Li 8.39561 0.0763111 3.1445
Li -2.02648 7.30755 5.96482
Li 2.26728 7.42983 11.7719
Li 8.57062 7.31058 2.95906
Li 4.11932 3.59584 6.17379
Li 0.281414 3.78812 8.97392
Li 6.15404 0.0570452 9.01497
Li 6.12771 7.29109 9.04081
Li 2.17625 10.9786 3.07077
Li 2.11375 7.30263 3.11228
Li 9.54812 9.27881 8.9502
Li 5.39336 1.79573 3.12617
Li 0.146333 7.3092 8.8771
Li 5.3921 5.55257 2.99942
Li 0.269176 10.9873 8.88374
Li 3.2901 1.90155 0.064668
Cl 1.10836 1.80995 1.56834
Cl 4.2941 7.30572 1.60703
Cl 7.54614 1.78287 10.3882
Cl -2.02315 7.28804 10.3601
Cl 7.55057 9.25313 10.3645
Cl -1.99587 3.73999 10.4315
Cl 1.04869 9.32445 1.61426
Cl 4.18099 3.74851 1.5558
Cl -2.17231 0.0857949 10.5314
Cl 0.984678 5.59881 10.527
Cl 10.7456 0.0675738 1.58002
Cl 1.24511 5.58704 1.56708
Cl 7.36192 1.79797 1.67988
Cl 10.4784 7.29112 1.60516
Cl 0.962904 1.82418 10.4696
Cl 4.3013 7.32221 10.5437
Cl 1.08362 9.25863 10.5296
Cl 4.43527 3.79998 10.5081
Cl 7.34073 9.22386 1.63957
Cl 10.5393 3.79431 1.66995
Cl 4.25442 0.100651 10.5685
Cl 7.41501 5.62427 10.3612
Cl 4.36369 0.139966 1.49795
Cl 7.43692 5.59737 1.57093
Cl -1.07315 1.78065 7.60035
Cl 1.96599 7.29327 7.4656
Cl 9.62208 1.78591 4.46244
Cl 0.0541056 7.33456 4.54683
Cl 9.67976 9.20519 4.5117
Cl 0.177345 3.81301 4.50186
Cl -1.13529 9.20675 7.50832
Cl 2.07724 3.77054 7.45987
Cl -0.103235 0.0909836 4.47072
Cl 3.22949 5.51116 4.50924
Cl 8.65156 11.013 7.46459
Cl -1.02322 5.55174 7.50735
Cl 5.31742 1.84256 7.4344
Cl 8.54065 7.31623 7.48577
Cl 3.32978 1.87533 4.47346
Cl 6.47791 7.2832 4.4793
Cl 3.27568 9.28073 4.39146
Cl 6.43319 3.79743 4.45738
Cl 5.43253 9.30414 7.54865
Cl 8.4543 3.82197 7.56779
Cl 6.25658 10.9834 4.53056
Cl 9.48921 5.5611 4.58262
Cl 2.13362 0.0568798 7.31248
Cl 5.38839 5.50587 7.41847
In 8.43541 10.9866 11.9353
In 3.18343 5.60197 0.0783283
In 2.24255 0.117598 11.8591
In 5.3945 5.51103 11.927
In -2.06271 0.131518 6.00693
In 1.10765 5.54399 6.02321
In 4.22351 10.9181 6.14533
In 7.45277 5.53942 6.02364
80
 Atoms. Timestep: 2
Li 2.02257 3.76902 3.06595
Li 6.2537 3.82319 9.04718
Li 8.59899 3.83459 2.85853
Li 11.6456 9.14406 2.96896
Li 5.32631 9.2804 3.10365
Li 11.6201 1.95153 2.97382
Li 9.5459 5.50051 8.94577
Li 9.58884 1.83031 8.94858
Li 8.38963 0.0807808 3.15924
Li -2.0237 7.28658 5.98546
Li 2.26053 7.44049 11.7608
Li 8.57761 7.32598 2.93156
Li 4.10281 3.59666 6.15185
Li 0.325074 3.77831 8.95796
Li 6.1121 0.0514045 9.01082
Li 6.13017 7.29144 9.07633
Li 2.16653 10.9433 3.07189
Li 2.12809 7.29993 3.11023
Li 9.55401 9.27574 8.94328
Li 5.41381 1.82108 3.14873
Li 0.16157 7.30892 8.83243
Li 5.38978 5.54155 2.96502
Li 0.248076 10.9889 8.88638
Li 3.32416 1.92306 0.0544933
Cl 1.10312 1.81107 1.56863
Cl 4.29741 7.30203 1.60455
Cl 7.54194 1.78459 10.3959
Cl -2.01728 7.29422 10.3682
Cl 7.55863 9.24033 10.3592
Cl -1.99848 3.73843 10.437
Cl 1.05442 9.34076 1.61212
Cl 4.17924 3.74565 1.55533
Cl -2.16837 0.071079 10.5462
Cl 0.982827 5.60463 10.5106
Cl 10.7352 0.0651492 1.57641
Cl 1.24376 5.57877 1.57183
Cl 7.35398 1.80261 1.67343
Cl 10.4665 7.28265 1.5972
Cl 0.968246 1.83445 10.4728
Cl 4.2934 7.32696 10.5332
Cl 1.07819 9.26166 10.5322
Cl 4.43947 3.79766 10.5131
Cl 7.34878 9.21684 1.64515
Cl 10.5388 3.80371 1.6705
Cl 4.26083 0.114502 10.5581
Cl 7.41662 5.61421 10.3551
Cl 4.36187 0.150243 1.49102
Cl 7.43835 5.60714 1.57289
Cl -1.06369 1.78217 7.60222
Cl 1.95547 7.29116 7.4795
Cl 9.62403 1.78414 4.46624
Cl 0.067346 7.33527 4.56392
Cl 9.6732 9.19275 4.50766
Cl 0.176972 3.80453 4.48805
Cl -1.1371 9.19376 7.50123
Cl 2.06677 3.78004 7.4545
Cl -0.100866 0.0977502 4.46827
Cl 3.23118 5.51017 4.51771
Cl 8.64865 11.0105 7.46502
Cl -1.00343 5.56058 7.50944
Cl 5.31587 1.83195 7.44282
Cl 8.51877 7.32287 7.48791
Cl 3.32457 1.88176 4.47322
Cl 6.46401 7.29209 4.48854
Cl 3.27606 9.2814 4.39572
Cl 6.44118 3.8071 4.44926
Cl 5.42558 9.31847 7.55795
Cl 8.4776 3.81844 7.56038
Cl 6.24462 10.9784 4.52419
Cl 9.48124 5.55318 4.57583
Cl 2.12867 0.0490183 7.30963
Cl 5.39273 5.50645 7.42141
In 8.43384 10.9908 11.9386
In 3.18571 5.60229 0.081645
In 2.24431 0.114916 11.8727
In 5.39969 5.50982 11.9201
In -2.05867 0.130363 6.00548
In 1.10832 5.54676 6.01566
In 4.21972 10.9161 6.14883
In 7.45404 5.53516 6.02594
80
 Atoms. Timestep: 3
Li 2.00073 3.75432 3.05677
Li 6.23842 3.83306 9.04147
Li 8.61379 3.82906 2.81766
Li 11.6092 9.13385 2.96287
Li 5.33306 9.26653 3.11799
Li 11.597 1.96617 2.95683
Li 9.55632 5.48149 8.92061
Li 9.61003 1.83456 8.95048
Li 8.38357 0.0850816 3.17403
Li -2.02115 7.2657 6.00584
Li 2.25374 7.45097 11.7495
Li 8.58395 7.34116 2.90498
Li 4.08662 3.59732 6.1301
Li 0.367938 3.76854 8.94281
Li 6.0711 0.0460602 9.00704
Li 6.13296 7.29211 9.11121
Li 2.15681 10.9087 3.07294
Li 2.14233 7.29724 3.10825
Li 9.55965 9.27275 8.93661
Li 5.43373 1.84608 3.1712
Li 0.175856 7.3088 8.78919
Li 5.38772 5.5307 2.93123
Li 0.227323 10.9906 8.8891
Li 3.35758 1.94426 0.0445493
Cl 1.09787 1.81221 1.56893
Cl 4.30071 7.29839 1.60211
Cl 7.53781 1.78628 10.4035
Cl -2.01142 7.30028 10.3762
Cl 7.5667 9.22763 10.354
Cl -2.00107 3.73689 10.4425
Cl 1.06008 9.35688 1.61007
Cl 4.17752 3.74284 1.5549
Cl -2.16443 0.0564305 10.5609
Cl 0.98096 5.61044 10.4944
Cl 10.7249 0.0627211 1.57284
Cl 1.24244 5.57056 1.57656
Cl 7.34617 1.80731 1.66706
Cl 10.4548 7.27429 1.58923
Cl 0.973675 1.84465 10.476
Cl 4.28553 7.33161 10.5228
Cl 1.07285 9.26476 10.5348
Cl 4.44358 3.79532 10.518
Cl 7.35678 9.20991 1.65068
Cl 10.5385 3.81306 1.67099
Cl 4.26696 0.128339 10.5479
Cl 7.41821 5.60417 10.3491
Cl 4.36014 0.160498 1.48414
Cl 7.43978 5.61688 1.57477
Cl -1.05425 1.78362 7.60406
Cl 1.94524 7.2891 7.49323
Cl 9.62594 1.78239 4.46999
Cl 0.0805005 7.33604 4.58085
Cl 9.66669 9.18038 4.50366
Cl 0.176549 3.7961 4.47434
Cl -1.13894 9.18084 7.49412
Cl 2.05652 3.7894 7.44906
Cl -0.0986014 0.104477 4.46583
Cl 3.23289 5.50916 4.52612
Cl 8.64587 11.008 7.46542
Cl -0.983869 5.56933 7.51154
Cl 5.31427 1.82149 7.45117
Cl 8.49699 7.32944 7.49003
Cl 3.31941 1.88816 4.47301
Cl 6.45018 7.30086 4.49773
Cl 3.27643 9.28197 4.39997
Cl 6.4491 3.81672 4.44114
Cl 5.41863 9.33261 7.56722
Cl 8.50082 3.81489 7.55297
Cl 6.23273 10.9735 4.51784
Cl 9.47333 5.54531 4.56905
Cl 2.12364 0.0411831 7.30682
Cl 5.39705 5.50699 7.42437
In 8.43227 10.9951 11.9419
In 3.18798 5.60262 0.0849031
In 2.24607 0.112205 11.8862
In 5.40486 5.50864 11.9132
In -2.05464 0.129188 6.00405
In 1.10901 5.54953 6.00808
In 4.21591 10.9141 6.15231
In 7.4553 5.53095 6.02822
