LAMMPS data file via write_data, version 2 Aug 2023, timestep = 958, units = metal

80 atoms
3 atom types

0.03807341985918883 12.783926580140701 xlo xhi
0.061614773158544175 11.01888522684155 ylo yhi
0.07409066419760237 11.945545335802409 zlo zhi
0 -4.276094133434506 0 xy xz yz

Masses

1 6.941
2 114.818
3 35.453

Atoms # atomic

6 1 11.667666702410326 1.9217136837371493 3.0079402339858756 -1 0 0
1 1 2.0672450277503085 3.7983922741426577 3.084175999714091 0 0 0
17 1 2.185946339033925 11.01431413003824 3.069609976747423 0 -1 0
24 1 3.2557086615134048 1.879865259068081 0.0749523441116715 0 0 0
25 3 1.1136160503275 1.808822932327246 1.5680506807141954 0 0 0
73 2 8.436970783944737 10.982295645239379 11.931947246515717 -1 -1 -1
20 1 5.3726176810428194 1.7701883261543478 3.1035507875599118 0 0 0
32 3 4.182760628768587 3.751378746538017 1.556266663944744 0 0 0
37 3 7.369909045045638 1.7933413213127947 1.6863739147207775 0 0 0
47 3 4.365578139538934 0.12968059915812805 1.504919801617669 0 0 0
75 2 2.2408020578228784 0.12026483888563198 11.845457154046887 0 0 -1
3 1 8.566921845687217 3.845965812723981 2.9422517551594463 0 0 0
9 1 8.401490366078328 0.07175076611505143 3.129861808971986 0 0 0
35 3 10.755968357167218 0.0699977083485175 1.583637979115446 -1 0 0
44 3 10.539858360522281 3.784884329092989 1.6693786297464681 0 0 0
4 1 11.719489381162498 9.164971908578508 2.9806610355254515 -1 0 0
18 1 2.099371657495503 7.305343677078851 3.1143773360687397 0 0 0
31 3 1.042932988631441 9.308023481731135 1.6164622134320379 0 -1 0
36 3 1.2464738611997792 5.595345914156206 1.5623350846189286 0 0 0
74 2 3.181134717521157 5.601655770100475 0.07498196072240147 0 0 0
5 1 5.312685108019114 9.307762862915599 3.0748047842225397 0 0 0
11 1 2.273984904562946 7.41905325480175 11.783044462064499 0 0 -1
22 1 5.3945646251381305 5.563712221921817 3.034132641270913 0 0 0
26 3 4.29080125810494 7.309434096795075 1.6095192807926093 0 0 0
43 3 7.332660885746988 9.230928403638847 1.6339621230564392 0 -1 0
48 3 7.435490535248238 5.587598050903321 1.5689210349706524 0 0 0
12 1 8.563317152475951 7.2950737238395025 2.98705639716267 0 0 0
38 3 10.490438981486347 7.299650161403348 1.6131271687213606 0 0 0
76 2 5.3892862515747115 5.512260442669842 11.93389364007362 0 0 -1
49 3 -1.0826215280706024 1.7790913692788535 7.598468091904331 0 0 0
57 3 -0.1056629875399892 0.08419533411717783 4.4731709766556 0 0 0
77 2 -2.066758562209036 0.13266343745292286 6.0083828752047905 0 0 0
54 3 0.17769346628148802 3.821523877814086 4.515725393988619 0 0 0
56 3 2.0878298311315135 3.760974569106188 7.4652283910499895 0 0 0
63 3 3.335024821469484 1.8688930520561917 4.47371564689732 0 0 0
71 3 2.1385323652376136 0.0647532600487794 7.315329247406766 0 0 0
13 1 4.1359885751523136 3.5949450844309876 6.195846864131642 0 0 0
61 3 5.318938141032599 1.8532501618534327 7.425945993731517 0 0 0
66 3 6.4251707447908935 3.787712724867226 4.465484199882283 0 0 0
68 3 8.430973147777035 3.8255084107022785 7.575207648033228 0 0 0
69 3 6.268585224980236 10.988368568262164 4.536938989375752 0 -1 0
79 2 4.227296241504754 10.920132172985788 6.141830828109943 0 -1 0
51 3 9.620100443959393 1.7876831829594462 4.458634184312077 -1 0 0
59 3 8.654540901106682 11.015571040577962 7.46413291069743 -1 -1 0
10 1 -2.0293679532331885 7.328512079240666 5.944055527527874 0 0 0
55 3 -1.1334764600476606 9.219779991987892 7.515399167617462 0 -1 0
60 3 -1.0431195528260673 5.542855289231356 7.505252027303525 0 0 0
50 3 1.976633881403824 7.295396321982627 7.451617166304826 0 0 0
52 3 0.04082974486886043 7.333882917799102 4.529665491391364 0 0 0
58 3 3.227802185572384 5.512144117940249 4.500752725443514 0 0 0
65 3 3.2752977959574974 9.280019349553571 4.387180631220383 0 -1 0
78 2 1.106987897571001 5.54120849021987 6.030751480605356 0 0 0
62 3 8.562592527807759 7.309552833750211 7.483631902996523 0 0 0
64 3 6.491850622236947 7.274219188501146 4.470044380010482 0 0 0
67 3 5.439469976220111 9.289731108303197 7.5393382784873335 0 -1 0
72 3 5.384022876299615 5.505292967489432 7.415525410382569 0 0 0
80 2 7.4514899596020525 5.54369629208443 6.0213176742461325 0 0 0
53 3 9.686343474410577 9.217674558408058 4.515751472173277 -1 -1 0
70 3 9.497202095154018 5.56906446124663 4.589407617237592 0 0 0
8 1 9.545476006010588 1.821273941278712 8.945347513068924 -1 0 0
30 3 -1.993239313966501 3.7415630010435375 10.425962541253867 0 0 -1
33 3 -2.1762398188046044 0.1005439810415115 10.516569095973031 0 0 -1
14 1 0.23736370071556873 3.797935542195294 8.990326136584823 0 0 0
23 1 0.29050069281478424 10.98556655304332 8.88111144724606 0 -1 0
39 3 0.9576079854850155 1.8138644293731143 10.466421032552043 0 0 -1
42 3 4.431034409094834 3.8022843101904247 10.503172769727582 0 0 -1
45 3 4.247886470060641 0.08679756568129174 10.579059657330587 0 0 -1
2 1 6.285125309343862 3.8029813342399814 9.058030631614022 0 0 0
15 1 6.196377621754667 0.06284325308549366 9.019367012397291 0 0 0
27 3 7.550369591855893 1.781128097132088 10.380565744955826 -1 0 -1
7 1 9.525436536565143 5.5397149232906155 8.997311537840249 -1 0 0
19 1 9.54212220675036 9.28192347814498 8.957251165079343 -1 0 0
28 3 -2.0290346342806496 7.281805623651459 10.352103521395287 0 0 -1
21 1 0.13069956900414176 7.309593386423543 8.922395330981823 0 0 0
34 3 0.9865221735975489 5.592994315349574 10.543445984765953 0 0 -1
40 3 4.309200843031314 7.317413773081643 10.554236049486407 0 0 -1
41 3 1.0891019780301956 9.255653124197778 10.526986515350046 0 -1 -1
16 1 6.125355565856949 7.2909236625014495 9.004926308172974 0 0 0
29 3 7.542515073893461 9.265989914512064 10.369860564740403 -1 -1 -1
46 3 7.413390779384707 5.634341626830832 10.367329436467351 0 0 -1

Velocities

6 0 0 0
1 0 0 0
17 0 0 0
24 0 0 0
25 0 0 0
73 0 0 0
20 0 0 0
32 0 0 0
37 0 0 0
47 0 0 0
75 0 0 0
3 0 0 0
9 0 0 0
35 0 0 0
44 0 0 0
4 0 0 0
18 0 0 0
31 0 0 0
36 0 0 0
74 0 0 0
5 0 0 0
11 0 0 0
22 0 0 0
26 0 0 0
43 0 0 0
48 0 0 0
12 0 0 0
38 0 0 0
76 0 0 0
49 0 0 0
57 0 0 0
77 0 0 0
54 0 0 0
56 0 0 0
63 0 0 0
71 0 0 0
13 0 0 0
61 0 0 0
66 0 0 0
68 0 0 0
69 0 0 0
79 0 0 0
51 0 0 0
59 0 0 0
10 0 0 0
55 0 0 0
60 0 0 0
50 0 0 0
52 0 0 0
58 0 0 0
65 0 0 0
78 0 0 0
62 0 0 0
64 0 0 0
67 0 0 0
72 0 0 0
80 0 0 0
53 0 0 0
70 0 0 0
8 0 0 0
30 0 0 0
33 0 0 0
14 0 0 0
23 0 0 0
39 0 0 0
42 0 0 0
45 0 0 0
2 0 0 0
15 0 0 0
27 0 0 0
7 0 0 0
19 0 0 0
28 0 0 0
21 0 0 0
34 0 0 0
40 0 0 0
41 0 0 0
16 0 0 0
29 0 0 0
46 0 0 0
